Variables="Par","CDF"
Zone T="Per Meas"
-3.912023005	0.714285714
-3.912023005	1.428571429
-3.912023005	2.142857143
-3.506557897	2.857142857
-3.506557897	3.571428571
-3.218875825	4.285714286
-2.813410717	5
-2.813410717	5.714285714
-2.813410717	6.428571429
-2.813410717	7.142857143
-2.525728644	7.857142857
-2.407945609	8.571428571
-2.407945609	9.285714286
-2.407945609	10
-2.120263536	10.71428571
-2.040220829	11.42857143
-1.966112856	12.14285714
-1.966112856	12.85714286
-1.897119985	13.57142857
-1.771956842	14.28571429
-1.771956842	15
-1.714798428	15.71428571
-1.660731207	16.42857143
-1.609437912	17.14285714
-1.609437912	17.85714286
-1.514127733	18.57142857
-1.46967597	19.28571429
-1.46967597	20
-1.427116356	20.71428571
-1.427116356	21.42857143
-1.237874356	22.14285714
-1.171182982	22.85714286
-1.108662625	23.57142857
-1.108662625	24.28571429
-1.078809661	25
-1.021651248	25.71428571
-0.994252273	26.42857143
-0.967584026	27.14285714
-0.967584026	27.85714286
-0.94160854	28.57142857
-0.916290732	29.28571429
-0.916290732	30
-0.916290732	30.71428571
-0.916290732	31.42857143
-0.891598119	32.14285714
-0.891598119	32.85714286
-0.891598119	33.57142857
-0.733969175	34.28571429
-0.733969175	35
-0.673344553	35.71428571
-0.634878272	36.42857143
-0.616186139	37.14285714
-0.544727175	37.85714286
-0.356674944	38.57142857
-0.356674944	39.28571429
-0.342490309	40
-0.328504067	40.71428571
-0.314710745	41.42857143
-0.261364764	42.14285714
-0.248461359	42.85714286
-0.248461359	43.57142857
-0.223143551	44.28571429
-0.223143551	45
-0.223143551	45.71428571
-0.210721031	46.42857143
-0.186329578	47.14285714
-0.15082289	47.85714286
-0.116533816	48.57142857
-0.116533816	49.28571429
-0.105360516	50
-0.083381609	50.71428571
-0.072570693	51.42857143
0	52.14285714
0	52.85714286
0	53.57142857
0.009950331	54.28571429
0.039220713	55
0.09531018	55.71428571
0.182321557	56.42857143
0.182321557	57.14285714
0.231111721	57.85714286
0.270027137	58.57142857
0.350656872	59.28571429
0.405465108	60
0.470003629	60.71428571
0.530628251	61.42857143
0.542324291	62.14285714
0.570979547	62.85714286
0.58221562	63.57142857
0.609765572	64.28571429
0.727548607	65
0.819779831	65.71428571
0.875468737	66.42857143
0.90016135	67.14285714
0.928219303	67.85714286
0.947789399	68.57142857
0.996948635	69.28571429
1.029619417	70
1.029619417	70.71428571
1.064710737	71.42857143
1.071583616	72.14285714
1.088561953	72.85714286
1.137833002	73.57142857
1.16938136	74.28571429
1.190887565	75
1.229640551	75.71428571
1.238374231	76.42857143
1.255616037	77.14285714
1.311031877	77.85714286
1.324418957	78.57142857
1.348073148	79.28571429
1.350667183	80
1.355835154	80.71428571
1.360976553	81.42857143
1.398716881	82.14285714
1.398716881	82.85714286
1.401182974	83.57142857
1.458615023	84.28571429
1.591273942	85
1.593308531	85.71428571
1.654411278	86.42857143
1.667706821	87.14285714
1.70837786	87.85714286
1.752672081	88.57142857
1.785070481	89.28571429
1.796747011	90
1.8017098	90.71428571
1.843719208	91.42857143
1.850028377	92.14285714
1.876406943	92.85714286
1.885553349	93.57142857
1.89761986	94.28571429
1.927164106	95
1.945910149	95.71428571
1.982379829	96.42857143
2.100468909	97.14285714
2.281361457	97.85714286
2.33408376	98.57142857
2.536866389	99.28571429
3.559055466	100
Zone T="Per Gene"
-3.7090	0.2
-3.7090	0.4
-3.7090	0.6
-3.7090	0.8
-3.7090	1
-3.6870	1.2
-3.5280	1.4
-3.4920	1.6
-3.4130	1.8
-3.3350	2
-3.2570	2.2
-3.2200	2.4
-3.1440	2.6
-3.1000	2.8
-3.0280	3
-3.0000	3.2
-2.9480	3.4
-2.9220	3.6
-2.8670	3.8
-2.8390	4
-2.8130	4.2
-2.7770	4.4
-2.7340	4.6
-2.6980	4.8
-2.6820	5
-2.6250	5.2
-2.6140	5.4
-2.5820	5.6
-2.5610	5.8
-2.5200	6
-2.5120	6.2
-2.4840	6.4
-2.4620	6.6
-2.4260	6.8
-2.3980	7
-2.3790	7.2
-2.3510	7.4
-2.3340	7.6
-2.3220	7.8
-2.2910	8
-2.2740	8.2
-2.2540	8.4
-2.2260	8.6
-2.2030	8.8
-2.1890	9
-2.1700	9.2
-2.1600	9.4
-2.1260	9.6
-2.1220	9.8
-2.1020	10
-2.0830	10.2
-2.0720	10.4
-2.0440	10.6
-2.0270	10.8
-2.0050	11
-1.9900	11.2
-1.9870	11.4
-1.9710	11.6
-1.9550	11.8
-1.9330	12
-1.9180	12.2
-1.8990	12.4
-1.8850	12.6
-1.8720	12.8
-1.8510	13
-1.8430	13.2
-1.8220	13.4
-1.8160	13.6
-1.7960	13.8
-1.7890	14
-1.7710	14.2
-1.7580	14.4
-1.7420	14.6
-1.7350	14.8
-1.7160	15
-1.6980	15.2
-1.6900	15.4
-1.6780	15.6
-1.6710	15.8
-1.6490	16
-1.6400	16.2
-1.6240	16.4
-1.6080	16.6
-1.6030	16.8
-1.5850	17
-1.5710	17.2
-1.5630	17.4
-1.5520	17.6
-1.5440	17.8
-1.5300	18
-1.5110	18.2
-1.5070	18.4
-1.4950	18.6
-1.4760	18.8
-1.4690	19
-1.4530	19.2
-1.4500	19.4
-1.4350	19.6
-1.4260	19.8
-1.4130	20
-1.4070	20.2
-1.3910	20.4
-1.3800	20.6
-1.3740	20.8
-1.3620	21
-1.3520	21.2
-1.3330	21.4
-1.3240	21.6
-1.3190	21.8
-1.3070	22
-1.2970	22.2
-1.2830	22.4
-1.2770	22.6
-1.2680	22.8
-1.2560	23
-1.2440	23.2
-1.2350	23.4
-1.2270	23.6
-1.2120	23.8
-1.2000	24
-1.1890	24.2
-1.1860	24.4
-1.1730	24.6
-1.1670	24.8
-1.1570	25
-1.1420	25.2
-1.1370	25.4
-1.1230	25.6
-1.1160	25.8
-1.1070	26
-1.0960	26.2
-1.0850	26.4
-1.0760	26.6
-1.0720	26.8
-1.0560	27
-1.0480	27.2
-1.0370	27.4
-1.0310	27.6
-1.0200	27.8
-1.0090	28
-0.9990	28.2
-0.9928	28.4
-0.9822	28.6
-0.9765	28.8
-0.9639	29
-0.9573	29.2
-0.9491	29.4
-0.9358	29.6
-0.9288	29.8
-0.9216	30
-0.9129	30.2
-0.9058	30.4
-0.8941	30.6
-0.8822	30.8
-0.8786	31
-0.8648	31.2
-0.8598	31.4
-0.8500	31.6
-0.8396	31.8
-0.8373	32
-0.8257	32.2
-0.8139	32.4
-0.8053	32.6
-0.8006	32.8
-0.7864	33
-0.7856	33.2
-0.7721	33.4
-0.7609	33.6
-0.7580	33.8
-0.7472	34
-0.7418	34.2
-0.7294	34.4
-0.7206	34.6
-0.7146	34.8
-0.7015	35
-0.6963	35.2
-0.6887	35.4
-0.6775	35.6
-0.6704	35.8
-0.6617	36
-0.6543	36.2
-0.6450	36.4
-0.6424	36.6
-0.6305	36.8
-0.6241	37
-0.6177	37.2
-0.6084	37.4
-0.5970	37.6
-0.5884	37.8
-0.5833	38
-0.5743	38.2
-0.5647	38.4
-0.5606	38.6
-0.5501	38.8
-0.5387	39
-0.5293	39.2
-0.5222	39.4
-0.5160	39.6
-0.5079	39.8
-0.5000	40
-0.4967	40.2
-0.4886	40.4
-0.4749	40.6
-0.4675	40.8
-0.4646	41
-0.4506	41.2
-0.4447	41.4
-0.4380	41.6
-0.4317	41.8
-0.4213	42
-0.4108	42.2
-0.4048	42.4
-0.3941	42.6
-0.3928	42.8
-0.3786	43
-0.3727	43.2
-0.3618	43.4
-0.3597	43.6
-0.3524	43.8
-0.3440	44
-0.3343	44.2
-0.3279	44.4
-0.3215	44.6
-0.3122	44.8
-0.3042	45
-0.2952	45.2
-0.2861	45.4
-0.2804	45.6
-0.2753	45.8
-0.2600	46
-0.2579	46.2
-0.2510	46.4
-0.2389	46.6
-0.2298	46.8
-0.2265	47
-0.2155	47.2
-0.2105	47.4
-0.2052	47.6
-0.1952	47.8
-0.1895	48
-0.1806	48.2
-0.1684	48.4
-0.1627	48.6
-0.1533	48.8
-0.1461	49
-0.1416	49.2
-0.1353	49.4
-0.1269	49.6
-0.1142	49.8
-0.1074	50
-0.0983	50.2
-0.0950	50.4
-0.0832	50.6
-0.0781	50.8
-0.0706	51
-0.0616	51.2
-0.0519	51.4
-0.0480	51.6
-0.0384	51.8
-0.0323	52
-0.0208	52.2
-0.0171	52.4
-0.0034	52.6
0.0030	52.8
0.0073	53
0.0185	53.2
0.0240	53.4
0.0292	53.6
0.0374	53.8
0.0502	54
0.0567	54.2
0.0612	54.4
0.0740	54.6
0.0769	54.8
0.0892	55
0.0955	55.2
0.1027	55.4
0.1135	55.6
0.1193	55.8
0.1246	56
0.1372	56.2
0.1445	56.4
0.1475	56.6
0.1559	56.8
0.1627	57
0.1743	57.2
0.1841	57.4
0.1900	57.6
0.1993	57.8
0.2015	58
0.2143	58.2
0.2192	58.4
0.2309	58.6
0.2347	58.8
0.2420	59
0.2535	59.2
0.2595	59.4
0.2660	59.6
0.2788	59.8
0.2804	60
0.2909	60.2
0.2998	60.4
0.3089	60.6
0.3202	60.8
0.3244	61
0.3348	61.2
0.3380	61.4
0.3525	61.6
0.3541	61.8
0.3690	62
0.3700	62.2
0.3824	62.4
0.3898	62.6
0.3987	62.8
0.4077	63
0.4114	63.2
0.4259	63.4
0.4332	63.6
0.4363	63.8
0.4481	64
0.4591	64.2
0.4650	64.4
0.4681	64.6
0.4797	64.8
0.4903	65
0.4938	65.2
0.5044	65.4
0.5140	65.6
0.5231	65.8
0.5282	66
0.5382	66.2
0.5497	66.4
0.5560	66.6
0.5632	66.8
0.5713	67
0.5809	67.2
0.5858	67.4
0.5964	67.6
0.6116	67.8
0.6135	68
0.6239	68.2
0.6375	68.4
0.6416	68.6
0.6547	68.8
0.6612	69
0.6726	69.2
0.6810	69.4
0.6882	69.6
0.6908	69.8
0.7074	70
0.7091	70.2
0.7224	70.4
0.7293	70.6
0.7412	70.8
0.7471	71
0.7566	71.2
0.7666	71.4
0.7763	71.6
0.7890	71.8
0.7906	72
0.7997	72.2
0.8129	72.4
0.8184	72.6
0.8306	72.8
0.8416	73
0.8507	73.2
0.8612	73.4
0.8653	73.6
0.8765	73.8
0.8896	74
0.8930	74.2
0.9020	74.4
0.9205	74.6
0.9254	74.8
0.9390	75
0.9413	75.2
0.9596	75.4
0.9679	75.6
0.9740	75.8
0.9861	76
0.9971	76.2
1.0030	76.4
1.0190	76.6
1.0300	76.8
1.0310	77
1.0410	77.2
1.0580	77.4
1.0620	77.6
1.0800	77.8
1.0850	78
1.0950	78.2
1.1110	78.4
1.1170	78.6
1.1300	78.8
1.1410	79
1.1520	79.2
1.1630	79.4
1.1730	79.6
1.1790	79.8
1.1990	80
1.2020	80.2
1.2160	80.4
1.2260	80.6
1.2330	80.8
1.2550	81
1.2650	81.2
1.2720	81.4
1.2860	81.6
1.2930	81.8
1.3080	82
1.3180	82.2
1.3360	82.4
1.3410	82.6
1.3500	82.8
1.3670	83
1.3790	83.2
1.3880	83.4
1.4110	83.6
1.4180	83.8
1.4300	84
1.4490	84.2
1.4500	84.4
1.4710	84.6
1.4870	84.8
1.4910	85
1.5070	85.2
1.5190	85.4
1.5360	85.6
1.5530	85.8
1.5580	86
1.5750	86.2
1.5840	86.4
1.6020	86.6
1.6260	86.8
1.6290	87
1.6550	87.2
1.6590	87.4
1.6780	87.6
1.6900	87.8
1.7150	88
1.7270	88.2
1.7370	88.4
1.7590	88.6
1.7670	88.8
1.7810	89
1.8000	89.2
1.8130	89.4
1.8310	89.6
1.8500	89.8
1.8750	90
1.8900	90.2
1.9090	90.4
1.9330	90.6
1.9440	90.8
1.9650	91
1.9810	91.2
2.0090	91.4
2.0290	91.6
2.0350	91.8
2.0680	92
2.0790	92.2
2.1070	92.4
2.1330	92.6
2.1540	92.8
2.1620	93
2.2010	93.2
2.2280	93.4
2.2440	93.6
2.2630	93.8
2.3010	94
2.3200	94.2
2.3360	94.4
2.3630	94.6
2.3890	94.8
2.4240	95
2.4690	95.2
2.5000	95.4
2.5300	95.6
2.5550	95.8
2.5810	96
2.6100	96.2
2.6650	96.4
2.6950	96.6
2.7390	96.8
2.7660	97
2.8560	97.2
2.8730	97.4
2.9150	97.6
3.0100	97.8
3.0330	98
3.0860	98.2
3.1880	98.4
3.2520	98.6
3.3550	98.8
3.4040	99
3.5000	99.2
3.5000	99.4
3.5000	99.6
3.5000	99.8
3.5000	100
Zone T="Por Meas"
1.0457	0.341296928
1.1151	0.682593857
1.1184	1.023890785
1.1316	1.365187713
1.1343	1.706484642
1.1601	2.04778157
1.2059	2.389078498
1.4612	2.730375427
1.5053	3.071672355
1.5498	3.412969283
1.5626	3.754266212
1.5761	4.09556314
1.5840	4.436860068
1.8660	4.778156997
1.8720	5.119453925
1.8850	5.460750853
1.9085	5.802047782
1.9212	6.14334471
1.9221	6.484641638
1.9240	6.825938567
1.9273	7.167235495
1.9284	7.508532423
2.0231	7.849829352
2.0657	8.19112628
2.2682	8.532423208
2.2815	8.873720137
2.3074	9.215017065
2.3118	9.556313993
2.3212	9.897610922
2.3239	10.23890785
2.3358	10.58020478
2.3400	10.92150171
2.3621	11.26279863
2.3687	11.60409556
2.3724	11.94539249
2.3808	12.28668942
2.3813	12.62798635
2.4062	12.96928328
2.6590	13.3105802
2.6777	13.65187713
2.7012	13.99317406
2.7091	14.33447099
2.7105	14.67576792
2.7119	15.01706485
2.7189	15.35836177
2.7471	15.6996587
2.7495	16.04095563
2.7541	16.38225256
2.7565	16.72354949
2.7641	17.06484642
2.7763	17.40614334
2.7807	17.74744027
2.8480	18.0887372
2.8536	18.43003413
3.0286	18.77133106
3.0585	19.11262799
3.0834	19.45392491
3.0913	19.79522184
3.0955	20.13651877
3.1114	20.4778157
3.1251	20.81911263
3.1342	21.16040956
3.1373	21.50170648
3.1510	21.84300341
3.1589	22.18430034
3.1626	22.52559727
3.1664	22.8668942
3.1671	23.20819113
3.1748	23.54948805
3.2223	23.89078498
3.2713	24.23208191
3.2873	24.57337884
3.4854	24.91467577
3.5059	25.2559727
3.5213	25.59726962
3.5274	25.93856655
3.5341	26.27986348
3.5349	26.62116041
3.5358	26.96245734
3.5358	27.30375427
3.5363	27.64505119
3.5389	27.98634812
3.5433	28.32764505
3.5478	28.66894198
3.5809	29.01023891
3.5914	29.35153584
3.5947	29.69283276
3.6714	30.03412969
3.8584	30.37542662
3.9180	30.71672355
3.9538	31.05802048
3.9659	31.39931741
3.9687	31.74061433
3.9841	32.08191126
4.0123	32.42320819
4.0179	32.76450512
4.0277	33.10580205
4.3210	33.44709898
4.3225	33.7883959
4.3407	34.12969283
4.3407	34.47098976
4.3493	34.81228669
4.3556	35.15358362
4.3604	35.49488055
4.3644	35.83617747
4.3665	36.1774744
4.3838	36.51877133
4.3959	36.86006826
4.4260	37.20136519
4.4260	37.54266212
4.4278	37.88395904
4.4423	38.22525597
4.4423	38.5665529
4.4747	38.90784983
4.6800	39.24914676
4.6844	39.59044369
4.7171	39.93174061
4.7219	40.27303754
4.7797	40.61433447
4.8058	40.9556314
4.8061	41.29692833
4.8152	41.63822526
4.8390	41.97952218
4.8476	42.32081911
4.8627	42.66211604
5.0216	43.00341297
5.0216	43.3447099
5.0843	43.68600683
5.0923	44.02730375
5.1030	44.36860068
5.1125	44.70989761
5.1125	45.05119454
5.1165	45.39249147
5.1253	45.7337884
5.1290	46.07508532
5.1318	46.41638225
5.1352	46.75767918
5.1604	47.09897611
5.1792	47.44027304
5.1829	47.78156997
5.1887	48.12286689
5.1887	48.46416382
5.1952	48.80546075
5.2041	49.14675768
5.2092	49.48805461
5.2194	49.82935154
5.2194	50.17064846
5.2719	50.51194539
5.2819	50.85324232
5.4013	51.19453925
5.4784	51.53583618
5.4784	51.87713311
5.4849	52.21843003
5.4905	52.55972696
5.5126	52.90102389
5.5364	53.24232082
5.5456	53.58361775
5.5568	53.92491468
5.5612	54.2662116
5.5954	54.60750853
5.6003	54.94880546
5.6135	55.29010239
5.6224	55.63139932
5.6252	55.97269625
5.6439	56.31399317
5.6439	56.6552901
5.6555	56.99658703
5.6837	57.33788396
5.7002	57.67918089
5.7721	58.02047782
5.8145	58.36177474
5.9476	58.70307167
6.0046	59.0443686
6.0049	59.38566553
6.0102	59.72696246
6.0114	60.06825939
6.0134	60.40955631
6.0158	60.75085324
6.0190	61.09215017
6.0214	61.4334471
6.0302	61.77474403
6.0449	62.11604096
6.0885	62.45733788
6.0988	62.79863481
6.1146	63.13993174
6.1405	63.48122867
6.3018	63.8225256
6.3240	64.16382253
6.3307	64.50511945
6.3422	64.84641638
6.3657	65.18771331
6.3718	65.52901024
6.3730	65.87030717
6.3835	66.2116041
6.3928	66.55290102
6.3970	66.89419795
6.4120	67.23549488
6.4262	67.57679181
6.4321	67.91808874
6.4411	68.25938567
6.4744	68.60068259
6.5471	68.94197952
6.6767	69.28327645
6.6828	69.62457338
6.7210	69.96587031
6.7286	70.30716724
6.7427	70.64846416
6.7464	70.98976109
6.7501	71.33105802
6.7529	71.67235495
6.7643	72.01365188
6.7690	72.35494881
6.7792	72.69624573
6.7805	73.03754266
6.7805	73.37883959
6.7856	73.72013652
6.8286	74.06143345
6.8312	74.40273038
6.8529	74.7440273
7.0873	75.08532423
7.1043	75.42662116
7.1314	75.76791809
7.1393	76.10921502
7.1747	76.45051195
7.1747	76.79180887
7.1776	77.1331058
7.1776	77.47440273
7.1789	77.81569966
7.1834	78.15699659
7.1857	78.49829352
7.1859	78.83959044
7.1910	79.18088737
7.2031	79.5221843
7.2031	79.86348123
7.2153	80.20477816
7.2156	80.54607509
7.2181	80.88737201
7.2201	81.22866894
7.2318	81.56996587
7.3238	81.9112628
7.5224	82.25255973
7.5241	82.59385666
7.5443	82.93515358
7.6045	83.27645051
7.6154	83.61774744
7.6154	83.95904437
7.6263	84.3003413
7.6361	84.64163823
7.6571	84.98293515
7.6881	85.32423208
7.8720	85.66552901
7.8877	86.00682594
7.9268	86.34812287
7.9359	86.6894198
7.9372	87.03071672
7.9702	87.37201365
7.9760	87.71331058
8.0022	88.05460751
8.0022	88.39590444
8.0122	88.73720137
8.0132	89.07849829
8.0169	89.41979522
8.0451	89.76109215
8.2882	90.10238908
8.3300	90.44368601
8.3300	90.78498294
8.3598	91.12627986
8.4194	91.46757679
8.4210	91.80887372
8.4509	92.15017065
8.7030	92.49146758
8.7274	92.83276451
8.7508	93.17406143
8.7525	93.51535836
8.7685	93.85665529
8.7837	94.19795222
8.7897	94.53924915
8.8746	94.88054608
9.1474	95.221843
9.1659	95.56313993
9.1667	95.90443686
9.2062	96.24573379
9.2197	96.58703072
9.2562	96.92832765
9.2731	97.26962457
9.5437	97.6109215
9.6578	97.95221843
9.7501	98.29351536
9.9585	98.63481229
10.0413	98.97610922
10.0700	99.31740614
10.8558	99.65870307
10.9248	100
Zone T="Por Gene"
0.0790	0.2
0.0790	0.4
0.0790	0.6
0.0790	0.8
0.0790	1
0.1391	1.2
0.3116	1.4
0.4247	1.6
0.5912	1.8
0.6565	2
0.6907	2.2
0.8192	2.4
0.8718	2.6
0.9577	2.8
1.0140	3
1.1390	3.2
1.1700	3.4
1.2070	3.6
1.2750	3.8
1.3600	4
1.3800	4.2
1.4600	4.4
1.5020	4.6
1.5530	4.8
1.5900	5
1.6160	5.2
1.6730	5.4
1.7060	5.6
1.7670	5.8
1.8030	6
1.8210	6.2
1.8520	6.4
1.9070	6.6
1.9260	6.8
1.9780	7
2.0020	7.2
2.0220	7.4
2.0590	7.6
2.1000	7.8
2.1260	8
2.1550	8.2
2.1890	8.4
2.2140	8.6
2.2530	8.8
2.2830	9
2.3050	9.2
2.3170	9.4
2.3540	9.6
2.3930	9.8
2.3960	10
2.4370	10.2
2.4650	10.4
2.4720	10.6
2.5000	10.8
2.5240	11
2.5600	11.2
2.5790	11.4
2.5910	11.6
2.6130	11.8
2.6510	12
2.6630	12.2
2.6850	12.4
2.7050	12.6
2.7450	12.8
2.7660	13
2.7800	13.2
2.8060	13.4
2.8280	13.6
2.8450	13.8
2.8640	14
2.8770	14.2
2.9030	14.4
2.9280	14.6
2.9380	14.8
2.9670	15
2.9740	15.2
2.9970	15.4
3.0190	15.6
3.0430	15.8
3.0460	16
3.0790	16.2
3.0870	16.4
3.1150	16.6
3.1230	16.8
3.1380	17
3.1700	17.2
3.1820	17.4
3.1920	17.6
3.2180	17.8
3.2230	18
3.2490	18.2
3.2610	18.4
3.2850	18.6
3.2910	18.8
3.3080	19
3.3390	19.2
3.3540	19.4
3.3720	19.6
3.3820	19.8
3.3890	20
3.4110	20.2
3.4240	20.4
3.4440	20.6
3.4590	20.8
3.4770	21
3.4950	21.2
3.5030	21.4
3.5240	21.6
3.5310	21.8
3.5510	22
3.5660	22.2
3.5770	22.4
3.5920	22.6
3.6050	22.8
3.6230	23
3.6420	23.2
3.6570	23.4
3.6670	23.6
3.6910	23.8
3.7040	24
3.7090	24.2
3.7300	24.4
3.7370	24.6
3.7530	24.8
3.7670	25
3.7920	25.2
3.8040	25.4
3.8090	25.6
3.8330	25.8
3.8400	26
3.8490	26.2
3.8630	26.4
3.8830	26.6
3.9030	26.8
3.9090	27
3.9280	27.2
3.9350	27.4
3.9480	27.6
3.9660	27.8
3.9780	28
3.9920	28.2
4.0000	28.4
4.0160	28.6
4.0330	28.8
4.0400	29
4.0530	29.2
4.0740	29.4
4.0890	29.6
4.0940	29.8
4.1100	30
4.1190	30.2
4.1300	30.4
4.1460	30.6
4.1580	30.8
4.1730	31
4.1850	31.2
4.1940	31.4
4.2100	31.6
4.2190	31.8
4.2370	32
4.2440	32.2
4.2620	32.4
4.2700	32.6
4.2910	32.8
4.3020	33
4.3150	33.2
4.3190	33.4
4.3310	33.6
4.3470	33.8
4.3570	34
4.3750	34.2
4.3790	34.4
4.4000	34.6
4.4080	34.8
4.4180	35
4.4280	35.2
4.4440	35.4
4.4520	35.6
4.4630	35.8
4.4810	36
4.4930	36.2
4.5080	36.4
4.5130	36.6
4.5240	36.8
4.5430	37
4.5540	37.2
4.5680	37.4
4.5790	37.6
4.5860	37.8
4.5980	38
4.6090	38.2
4.6210	38.4
4.6330	38.6
4.6460	38.8
4.6530	39
4.6690	39.2
4.6820	39.4
4.6920	39.6
4.7070	39.8
4.7180	40
4.7250	40.2
4.7390	40.4
4.7550	40.6
4.7650	40.8
4.7740	41
4.7920	41.2
4.7960	41.4
4.8130	41.6
4.8180	41.8
4.8310	42
4.8390	42.2
4.8550	42.4
4.8720	42.6
4.8800	42.8
4.8890	43
4.9020	43.2
4.9070	43.4
4.9190	43.6
4.9300	43.8
4.9500	44
4.9620	44.2
4.9720	44.4
4.9810	44.6
4.9920	44.8
5.0070	45
5.0140	45.2
5.0270	45.4
5.0320	45.6
5.0450	45.8
5.0640	46
5.0710	46.2
5.0840	46.4
5.0890	46.6
5.1090	46.8
5.1150	47
5.1230	47.2
5.1330	47.4
5.1500	47.6
5.1610	47.8
5.1700	48
5.1820	48.2
5.1920	48.4
5.2020	48.6
5.2130	48.8
5.2260	49
5.2370	49.2
5.2560	49.4
5.2590	49.6
5.2770	49.8
5.2870	50
5.3000	50.2
5.3100	50.4
5.3140	50.6
5.3330	50.8
5.3420	51
5.3510	51.2
5.3640	51.4
5.3740	51.6
5.3900	51.8
5.3940	52
5.4090	52.2
5.4150	52.4
5.4250	52.6
5.4430	52.8
5.4540	53
5.4600	53.2
5.4780	53.4
5.4850	53.6
5.4930	53.8
5.5040	54
5.5220	54.2
5.5360	54.4
5.5450	54.6
5.5540	54.8
5.5670	55
5.5770	55.2
5.5850	55.4
5.5940	55.6
5.6060	55.8
5.6190	56
5.6300	56.2
5.6420	56.4
5.6560	56.6
5.6630	56.8
5.6760	57
5.6940	57.2
5.6980	57.4
5.7110	57.6
5.7200	57.8
5.7410	58
5.7510	58.2
5.7570	58.4
5.7660	58.6
5.7860	58.8
5.7910	59
5.8110	59.2
5.8140	59.4
5.8240	59.6
5.8400	59.8
5.8540	60
5.8640	60.2
5.8780	60.4
5.8900	60.6
5.8940	60.8
5.9120	61
5.9230	61.2
5.9320	61.4
5.9420	61.6
5.9610	61.8
5.9630	62
5.9840	62.2
5.9890	62.4
6.0050	62.6
6.0120	62.8
6.0260	63
6.0360	63.2
6.0550	63.4
6.0600	63.6
6.0710	63.8
6.0840	64
6.0990	64.2
6.1070	64.4
6.1180	64.6
6.1400	64.8
6.1420	65
6.1650	65.2
6.1760	65.4
6.1780	65.6
6.2000	65.8
6.2030	66
6.2220	66.2
6.2340	66.4
6.2480	66.6
6.2510	66.8
6.2700	67
6.2830	67.2
6.2960	67.4
6.3060	67.6
6.3240	67.8
6.3260	68
6.3470	68.2
6.3510	68.4
6.3660	68.6
6.3810	68.8
6.3970	69
6.4030	69.2
6.4230	69.4
6.4310	69.6
6.4510	69.8
6.4630	70
6.4650	70.2
6.4870	70.4
6.4970	70.6
6.5120	70.8
6.5290	71
6.5420	71.2
6.5510	71.4
6.5650	71.6
6.5770	71.8
6.5900	72
6.5990	72.2
6.6100	72.4
6.6350	72.6
6.6390	72.8
6.6590	73
6.6670	73.2
6.6830	73.4
6.7010	73.6
6.7090	73.8
6.7250	74
6.7330	74.2
6.7500	74.4
6.7690	74.6
6.7830	74.8
6.7870	75
6.8120	75.2
6.8150	75.4
6.8410	75.6
6.8460	75.8
6.8690	76
6.8750	76.2
6.8930	76.4
6.9050	76.6
6.9160	76.8
6.9390	77
6.9550	77.2
6.9630	77.4
6.9890	77.6
7.0040	77.8
7.0120	78
7.0280	78.2
7.0490	78.4
7.0580	78.6
7.0680	78.8
7.0860	79
7.1040	79.2
7.1150	79.4
7.1330	79.6
7.1510	79.8
7.1670	80
7.1810	80.2
7.1990	80.4
7.2130	80.6
7.2290	80.8
7.2430	81
7.2590	81.2
7.2810	81.4
7.2980	81.6
7.3130	81.8
7.3300	82
7.3540	82.2
7.3580	82.4
7.3760	82.6
7.4090	82.8
7.4200	83
7.4390	83.2
7.4570	83.4
7.4710	83.6
7.4940	83.8
7.5050	84
7.5330	84.2
7.5480	84.4
7.5700	84.6
7.5910	84.8
7.6020	85
7.6300	85.2
7.6410	85.4
7.6510	85.6
7.6870	85.8
7.7080	86
7.7230	86.2
7.7370	86.4
7.7610	86.6
7.7830	86.8
7.8050	87
7.8340	87.2
7.8460	87.4
7.8590	87.6
7.8940	87.8
7.9120	88
7.9360	88.2
7.9530	88.4
7.9700	88.6
8.0120	88.8
8.0350	89
8.0550	89.2
8.0610	89.4
8.0860	89.6
8.1190	89.8
8.1370	90
8.1680	90.2
8.1890	90.4
8.2190	90.6
8.2400	90.8
8.2670	91
8.2940	91.2
8.3370	91.4
8.3650	91.6
8.3930	91.8
8.4250	92
8.4450	92.2
8.4710	92.4
8.5100	92.6
8.5310	92.8
8.5810	93
8.6010	93.2
8.6310	93.4
8.6670	93.6
8.7290	93.8
8.7450	94
8.7970	94.2
8.8230	94.4
8.8820	94.6
8.9240	94.8
8.9380	95
9.0080	95.2
9.0640	95.4
9.0680	95.6
9.1460	95.8
9.1930	96
9.2560	96.2
9.2990	96.4
9.3710	96.6
9.3970	96.8
9.4710	97
9.5210	97.2
9.6230	97.4
9.6520	97.6
9.7920	97.8
9.8360	98
9.9680	98.2
10.01	98.4
10.19	98.6
10.22	98.8
10.37	99
10.50	99.2
10.50	99.4
10.50	99.6
10.50	99.8
10.50	100
Zone T="Mult Gene"
10.0600	0.2
10.2900	0.4
10.4900	0.6
10.6900	0.8
10.8900	1
10.9300	1.2
11.1700	1.4
11.4300	1.6
11.5100	1.8
11.7100	2
11.8300	2.2
12.0000	2.4
12.3200	2.6
12.3600	2.8
12.5700	3
12.8200	3.2
12.9600	3.4
13.1700	3.6
13.2600	3.8
13.5600	4
13.7600	4.2
13.8500	4.4
14.0400	4.6
14.2000	4.8
14.4600	5
14.5500	5.2
14.8500	5.4
14.9000	5.6
15.1900	5.8
15.2200	6
15.5500	6.2
15.7300	6.4
15.8900	6.6
15.9600	6.8
16.1900	7
16.4000	7.2
16.5200	7.4
16.7200	7.6
16.8600	7.8
17.0700	8
17.2000	8.2
17.5100	8.4
17.5600	8.6
17.9200	8.8
18.1000	9
18.1700	9.2
18.3400	9.4
18.5800	9.6
18.6600	9.8
18.8300	10
19.0100	10.2
19.1900	10.4
19.3800	10.6
19.7000	10.8
19.9000	11
20.0000	11.2
20.1400	11.4
20.2900	11.6
20.5600	11.8
20.7000	12
20.8700	12.2
21.0800	12.4
21.2200	12.6
21.3500	12.8
21.5300	13
21.7500	13.2
21.9900	13.4
22.1800	13.6
22.2500	13.8
22.5100	14
22.7000	14.2
22.9300	14.4
23.0900	14.6
23.2600	14.8
23.3600	15
23.6700	15.2
23.7000	15.4
23.9200	15.6
24.1900	15.8
24.3500	16
24.5700	16.2
24.6000	16.4
24.8100	16.6
25.0400	16.8
25.1500	17
25.4100	17.2
25.5400	17.4
25.8200	17.6
25.9200	17.8
26.1200	18
26.3300	18.2
26.5600	18.4
26.6500	18.6
26.7800	18.8
26.9800	19
27.2500	19.2
27.4000	19.4
27.5100	19.6
27.6700	19.8
27.9500	20
28.1400	20.2
28.2600	20.4
28.5000	20.6
28.7100	20.8
28.7600	21
28.9600	21.2
29.2500	21.4
29.3800	21.6
29.6000	21.8
29.7400	22
29.9000	22.2
30.1400	22.4
30.3100	22.6
30.3700	22.8
30.5400	23
30.7600	23.2
31.0100	23.4
31.1900	23.6
31.2500	23.8
31.5300	24
31.7600	24.2
31.8200	24.4
32.0500	24.6
32.2800	24.8
32.4700	25
32.5000	25.2
32.8200	25.4
33.0400	25.6
33.1100	25.8
33.3900	26
33.5100	26.2
33.7400	26.4
33.9200	26.6
33.9900	26.8
34.1600	27
34.3500	27.2
34.6400	27.4
34.8300	27.6
34.9400	27.8
35.1900	28
35.3000	28.2
35.3900	28.4
35.6200	28.6
35.7500	28.8
36.0900	29
36.1200	29.2
36.4200	29.4
36.5000	29.6
36.7500	29.8
36.9600	30
37.0100	30.2
37.2200	30.4
37.4500	30.6
37.5900	30.8
37.8800	31
38.0600	31.2
38.1900	31.4
38.4000	31.6
38.5800	31.8
38.6300	32
38.8500	32.2
39.1500	32.4
39.2000	32.6
39.5000	32.8
39.5400	33
39.7900	33.2
40.0400	33.4
40.2000	33.6
40.2900	33.8
40.5800	34
40.7300	34.2
40.8700	34.4
40.9700	34.6
41.1500	34.8
41.4800	35
41.5100	35.2
41.8100	35.4
41.9600	35.6
42.0600	35.8
42.2900	36
42.5500	36.2
42.7300	36.4
42.9000	36.6
43.0500	36.8
43.2500	37
43.4700	37.2
43.6200	37.4
43.7200	37.6
44.0000	37.8
44.0800	38
44.2600	38.2
44.4600	38.4
44.7000	38.6
44.8100	38.8
45.0900	39
45.1100	39.2
45.3100	39.4
45.4800	39.6
45.6800	39.8
45.9600	40
46.0900	40.2
46.3200	40.4
46.4000	40.6
46.5900	40.8
46.8500	41
46.9400	41.2
47.2500	41.4
47.3200	41.6
47.4800	41.8
47.7800	42
47.9200	42.2
48.0900	42.4
48.2400	42.6
48.3900	42.8
48.5500	43
48.8700	43.2
48.8900	43.4
49.1800	43.6
49.3200	43.8
49.4600	44
49.6100	44.2
49.8400	44.4
50.0400	44.6
50.2000	44.8
50.4600	45
50.5300	45.2
50.7700	45.4
50.8800	45.6
51.1900	45.8
51.3200	46
51.4200	46.2
51.7200	46.4
51.9000	46.6
52.0100	46.8
52.1500	47
52.3100	47.2
52.6100	47.4
52.8300	47.6
52.8900	47.8
53.0600	48
53.3000	48.2
53.5500	48.4
53.7200	48.6
53.7900	48.8
54.0200	49
54.1000	49.2
54.4000	49.4
54.5900	49.6
54.7700	49.8
55.0000	50
55.0600	50.2
55.3200	50.4
55.4100	50.6
55.6400	50.8
55.9000	51
56.0200	51.2
56.1500	51.4
56.4200	51.6
56.5100	51.8
56.7100	52
56.8400	52.2
57.0800	52.4
57.3300	52.6
57.4500	52.8
57.6900	53
57.7900	53.2
58.0500	53.4
58.2100	53.6
58.3600	53.8
58.5400	54
58.7100	54.2
58.9300	54.4
59.0300	54.6
59.2300	54.8
59.4500	55
59.5400	55.2
59.7600	55.4
59.9100	55.6
60.0600	55.8
60.3200	56
60.5700	56.2
60.6900	56.4
60.7800	56.6
60.9700	56.8
61.1800	57
61.3800	57.2
61.6600	57.4
61.6900	57.6
61.8800	57.8
62.1500	58
62.3300	58.2
62.3900	58.4
62.6100	58.6
62.8100	58.8
63.0300	59
63.1700	59.2
63.4500	59.4
63.5200	59.6
63.6500	59.8
63.9200	60
64.1600	60.2
64.2800	60.4
64.4700	60.6
64.5500	60.8
64.8500	61
65.0400	61.2
65.0900	61.4
65.4300	61.6
65.5300	61.8
65.7500	62
65.9700	62.2
66.0900	62.4
66.2800	62.6
66.4400	62.8
66.6600	63
66.8200	63.2
66.9700	63.4
67.1600	63.6
67.3100	63.8
67.5000	64
67.6300	64.2
67.8900	64.4
68.0400	64.6
68.1900	64.8
68.3600	65
68.6200	65.2
68.7800	65.4
68.9800	65.6
69.1100	65.8
69.2300	66
69.4500	66.2
69.6300	66.4
69.8100	66.6
70.1000	66.8
70.2900	67
70.4100	67.2
70.6400	67.4
70.8100	67.6
70.9200	67.8
71.0800	68
71.2400	68.2
71.4800	68.4
71.7400	68.6
71.7800	68.8
72.0500	69
72.2500	69.2
72.3500	69.4
72.5600	69.6
72.7800	69.8
72.8700	70
73.0200	70.2
73.3300	70.4
73.4500	70.6
73.5600	70.8
73.7700	71
73.9200	71.2
74.1500	71.4
74.3600	71.6
74.5500	71.8
74.6400	72
74.9500	72.2
75.0000	72.4
75.2900	72.6
75.3500	72.8
75.5900	73
75.8300	73.2
75.9300	73.4
76.0600	73.6
76.3300	73.8
76.4700	74
76.6100	74.2
76.9500	74.4
77.0000	74.6
77.1900	74.8
77.4300	75
77.6700	75.2
77.8500	75.4
77.9900	75.6
78.1200	75.8
78.2500	76
78.5300	76.2
78.7500	76.4
78.7700	76.6
79.0300	76.8
79.2600	77
79.3900	77.2
79.5800	77.4
79.6900	77.6
79.8700	77.8
80.1100	78
80.2100	78.2
80.5300	78.4
80.6900	78.6
80.7600	78.8
81.0200	79
81.1000	79.2
81.3200	79.4
81.4900	79.6
81.7000	79.8
81.9200	80
82.1300	80.2
82.2600	80.4
82.3700	80.6
82.6900	80.8
82.7500	81
83.0500	81.2
83.2000	81.4
83.4000	81.6
83.5900	81.8
83.7500	82
83.9000	82.2
84.1400	82.4
84.2500	82.6
84.4800	82.8
84.5500	83
84.7600	83.2
84.8900	83.4
85.1700	83.6
85.3100	83.8
85.5200	84
85.6100	84.2
85.8500	84.4
86.1000	84.6
86.1500	84.8
86.3700	85
86.6500	85.2
86.7500	85.4
86.9200	85.6
87.1500	85.8
87.2400	86
87.5200	86.2
87.6300	86.4
87.9300	86.6
88.0000	86.8
88.1300	87
88.4200	87.2
88.6400	87.4
88.7600	87.6
88.9200	87.8
89.1900	88
89.3500	88.2
89.4400	88.4
89.6500	88.6
89.7900	88.8
90.0800	89
90.1000	89.2
90.3200	89.4
90.4900	89.6
90.7600	89.8
90.8400	90
91.1300	90.2
91.3300	90.4
91.4800	90.6
91.6500	90.8
91.7400	91
91.9800	91.2
92.1900	91.4
92.3000	91.6
92.5900	91.8
92.6600	92
92.9600	92.2
93.0700	92.4
93.3400	92.6
93.3800	92.8
93.6800	93
93.8100	93.2
93.9900	93.4
94.1700	93.6
94.3000	93.8
94.4900	94
94.7300	94.2
94.7800	94.4
95.0100	94.6
95.2100	94.8
95.4100	95
95.6200	95.2
95.7300	95.4
95.9800	95.6
96.0700	95.8
96.3000	96
96.4500	96.2
96.6100	96.4
96.7700	96.6
96.9800	96.8
97.2500	97
97.4700	97.2
97.6200	97.4
97.8400	97.6
97.9600	97.8
98.0800	98
98.3700	98.2
98.5500	98.4
98.7300	98.6
98.7700	98.8
99.0700	99
99.2600	99.2
99.4100	99.4
99.5800	99.6
99.8000	99.8
99.8800	100
Zone T="Hyfrac Leng Gene"
35.13	0.2
35.13	0.4
35.13	0.6
35.13	0.8
35.13	1
35.87	1.2
36.63	1.4
37.26	1.6
37.90	1.8
38.63	2
39.13	2.2
39.57	2.4
40.25	2.6
40.61	2.8
41.06	3
41.35	3.2
41.60	3.4
42.18	3.6
42.39	3.8
43.03	4
43.21	4.2
43.60	4.4
44.04	4.6
44.35	4.8
44.52	5
44.93	5.2
45.24	5.4
45.56	5.6
45.88	5.8
46.02	6
46.39	6.2
46.48	6.4
46.85	6.6
47.04	6.8
47.37	7
47.56	7.2
47.94	7.4
48.13	7.6
48.18	7.8
48.67	8
48.81	8.2
49.01	8.4
49.35	8.6
49.50	8.8
49.60	9
49.95	9.2
50.20	9.4
50.40	9.6
50.60	9.8
50.65	10
51.01	10.2
51.16	10.4
51.32	10.6
51.52	10.8
51.68	11
51.88	11.2
52.09	11.4
52.40	11.6
52.51	11.8
52.72	12
52.88	12.2
53.09	12.4
53.20	12.6
53.46	12.8
53.68	13
53.79	13.2
53.95	13.4
54.05	13.6
54.43	13.8
54.54	14
54.76	14.2
54.93	14.4
55.04	14.6
55.15	14.8
55.37	15
55.59	15.2
55.76	15.4
55.92	15.6
56.04	15.8
56.15	16
56.37	16.2
56.49	16.4
56.66	16.6
56.94	16.8
56.94	17
57.11	17.2
57.28	17.4
57.45	17.6
57.63	17.8
57.80	18
57.92	18.2
58.15	18.4
58.21	18.6
58.44	18.8
58.56	19
58.73	19.2
58.91	19.4
59.03	19.6
59.15	19.8
59.38	20
59.44	20.2
59.68	20.4
59.80	20.6
59.92	20.8
60.16	21
60.22	21.2
60.34	21.4
60.52	21.6
60.70	21.8
60.82	22
60.95	22.2
61.19	22.4
61.19	22.6
61.31	22.8
61.50	23
61.62	23.2
61.81	23.4
62.05	23.6
62.05	23.8
62.18	24
62.36	24.2
62.55	24.4
62.61	24.6
62.80	24.8
62.87	25
63.12	25.2
63.24	25.4
63.37	25.6
63.50	25.8
63.62	26
63.82	26.2
63.94	26.4
64.07	26.6
64.20	26.8
64.33	27
64.46	27.2
64.65	27.4
64.72	27.6
64.97	27.8
64.97	28
65.17	28.2
65.24	28.4
65.50	28.6
65.63	28.8
65.69	29
65.83	29.2
66.02	29.4
66.15	29.6
66.22	29.8
66.42	30
66.49	30.2
66.69	30.4
66.75	30.6
66.95	30.8
67.02	31
67.22	31.2
67.36	31.4
67.42	31.6
67.56	31.8
67.69	32
67.90	32.2
68.03	32.4
68.10	32.6
68.24	32.8
68.44	33
68.51	33.2
68.65	33.4
68.85	33.6
68.92	33.8
69.06	34
69.20	34.2
69.34	34.4
69.41	34.6
69.69	34.8
69.83	35
69.90	35.2
70.04	35.4
70.18	35.6
70.25	35.8
70.46	36
70.53	36.2
70.67	36.4
70.81	36.6
70.88	36.8
71.16	37
71.16	37.2
71.31	37.4
71.45	37.6
71.66	37.8
71.74	38
71.88	38.2
71.95	38.4
72.10	38.6
72.31	38.8
72.39	39
72.53	39.2
72.68	39.4
72.82	39.6
72.97	39.8
73.04	40
73.26	40.2
73.33	40.4
73.41	40.6
73.55	40.8
73.77	41
73.92	41.2
73.92	41.4
74.07	41.6
74.29	41.8
74.44	42
74.59	42.2
74.66	42.4
74.81	42.6
74.96	42.8
75.11	43
75.19	43.2
75.34	43.4
75.57	43.6
75.64	43.8
75.79	44
75.94	44.2
76.10	44.4
76.17	44.6
76.25	44.8
76.48	45
76.55	45.2
76.71	45.4
76.94	45.6
77.01	45.8
77.17	46
77.25	46.2
77.40	46.4
77.56	46.6
77.71	46.8
77.79	47
78.02	47.2
78.18	47.4
78.34	47.6
78.34	47.8
78.57	48
78.73	48.2
78.81	48.4
78.89	48.6
79.12	48.8
79.20	49
79.36	49.2
79.60	49.4
79.68	49.6
79.84	49.8
80.00	50
80.08	50.2
80.24	50.4
80.40	50.6
80.40	50.8
80.64	51
80.80	51.2
80.88	51.4
81.04	51.6
81.21	51.8
81.37	52
81.53	52.2
81.61	52.4
81.78	52.6
81.94	52.8
82.02	53
82.19	53.2
82.35	53.4
82.52	53.6
82.68	53.8
82.76	54
83.01	54.2
83.18	54.4
83.18	54.6
83.43	54.8
83.60	55
83.76	55.2
83.76	55.4
84.02	55.6
84.27	55.8
84.27	56
84.44	56.2
84.61	56.4
84.77	56.6
84.86	56.8
85.11	57
85.20	57.2
85.37	57.4
85.54	57.6
85.71	57.8
85.80	58
86.06	58.2
86.14	58.4
86.23	58.6
86.49	58.8
86.66	59
86.83	59.2
86.92	59.4